M 10.00000 0 (5.00, 0.00, 0.00), (250.00, 250.00), 10.00
s 10.000000000 _0_ AGT  --- 0 tcp 40 [0 0 0 0] ------- [0:0 1:0 32 0] [0 0] 0 0
r 10.000000000 _0_ RTR  --- 0 tcp 40 [0 0 0 0] ------- [0:0 1:0 32 0] [0 0] 0 0
s 10.000000000 _0_ RTR  --- 0 AODV 48 [0 0 0 0] ------- [0:255 -1:255 30 0] [0x2 1 1 [1 0] [0 4]] (REQUEST)
r 10.001148017 _14_ RTR  --- 0 AODV 48 [0 ffffffff 0 800] ------- [0:255 -1:255 30 0] [0x2 1 1 [1 0] [0 4]] (REQUEST)
r 10.001148017 _13_ RTR  --- 0 AODV 48 [0 ffffffff 0 800] ------- [0:255 -1:255 30 0] [0x2 1 1 [1 0] [0 4]] (REQUEST)
r 10.001148017 _12_ RTR  --- 0 AODV 48 [0 ffffffff 0 800] ------- [0:255 -1:255 30 0] [0x2 1 1 [1 0] [0 4]] (REQUEST)
r 10.001148017 _11_ RTR  --- 0 AODV 48 [0 ffffffff 0 800] ------- [0:255 -1:255 30 0] [0x2 1 1 [1 0] [0 4]] (REQUEST)
r 10.001148017 _10_ RTR  --- 0 AODV 48 [0 ffffffff 0 800] ------- [0:255 -1:255 30 0] [0x2 1 1 [1 0] [0 4]] (REQUEST)
r 10.001148017 _9_ RTR  --- 0 AODV 48 [0 ffffffff 0 800] ------- [0:255 -1:255 30 0] [0x2 1 1 [1 0] [0 4]] (REQUEST)
r 10.001148017 _8_ RTR  --- 0 AODV 48 [0 ffffffff 0 800] ------- [0:255 -1:255 30 0] [0x2 1 1 [1 0] [0 4]] (REQUEST)
r 10.001148017 _7_ RTR  --- 0 AODV 48 [0 ffffffff 0 800] ------- [0:255 -1:255 30 0] [0x2 1 1 [1 0] [0 4]] (REQUEST)
r 10.001148017 _6_ RTR  --- 0 AODV 48 [0 ffffffff 0 800] ------- [0:255 -1:255 30 0] [0x2 1 1 [1 0] [0 4]] (REQUEST)
r 10.001148317 _4_ RTR  --- 0 AODV 48 [0 ffffffff 0 800] ------- [0:255 -1:255 30 0] [0x2 1 1 [1 0] [0 4]] (REQUEST)
r 10.001148483 _2_ RTR  --- 0 AODV 48 [0 ffffffff 0 800] ------- [0:255 -1:255 30 0] [0x2 1 1 [1 0] [0 4]] (REQUEST)
r 10.001148550 _5_ RTR  --- 0 AODV 48 [0 ffffffff 0 800] ------- [0:255 -1:255 30 0] [0x2 1 1 [1 0] [0 4]] (REQUEST)
r 10.001148817 _3_ RTR  --- 0 AODV 48 [0 ffffffff 0 800] ------- [0:255 -1:255 30 0] [0x2 1 1 [1 0] [0 4]] (REQUEST)
s 10.001575962 _10_ RTR  --- 0 AODV 48 [0 ffffffff 0 800] ------- [10:255 -1:255 29 0] [0x2 2 1 [1 0] [0 4]] (REQUEST)
s 10.002089872 _2_ RTR  --- 0 AODV 48 [0 ffffffff 0 800] ------- [2:255 -1:255 29 0] [0x2 2 1 [1 0] [0 4]] (REQUEST)
s 10.002286099 _8_ RTR  --- 0 AODV 48 [0 ffffffff 0 800] ------- [8:255 -1:255 29 0] [0x2 2 1 [1 0] [0 4]] (REQUEST)
r 10.002743962 _9_ RTR  --- 0 AODV 48 [0 ffffffff a 800] ------- [10:255 -1:255 29 0] [0x2 2 1 [1 0] [0 4]] (REQUEST)
r 10.002743962 _8_ RTR  --- 0 AODV 48 [0 ffffffff a 800] ------- [10:255 -1:255 29 0] [0x2 2 1 [1 0] [0 4]] (REQUEST)
r 10.002743962 _7_ RTR  --- 0 AODV 48 [0 ffffffff a 800] ------- [10:255 -1:255 29 0] [0x2 2 1 [1 0] [0 4]] (REQUEST)
r 10.002743962 _6_ RTR  --- 0 AODV 48 [0 ffffffff a 800] ------- [10:255 -1:255 29 0] [0x2 2 1 [1 0] [0 4]] (REQUEST)
r 10.002743962 _11_ RTR  --- 0 AODV 48 [0 ffffffff a 800] ------- [10:255 -1:255 29 0] [0x2 2 1 [1 0] [0 4]] (REQUEST)
r 10.002743962 _12_ RTR  --- 0 AODV 48 [0 ffffffff a 800] ------- [10:255 -1:255 29 0] [0x2 2 1 [1 0] [0 4]] (REQUEST)
r 10.002743962 _13_ RTR  --- 0 AODV 48 [0 ffffffff a 800] ------- [10:255 -1:255 29 0] [0x2 2 1 [1 0] [0 4]] (REQUEST)
r 10.002743962 _14_ RTR  --- 0 AODV 48 [0 ffffffff a 800] ------- [10:255 -1:255 29 0] [0x2 2 1 [1 0] [0 4]] (REQUEST)
r 10.002743979 _0_ RTR  --- 0 AODV 48 [0 ffffffff a 800] ------- [10:255 -1:255 29 0] [0x2 2 1 [1 0] [0 4]] (REQUEST)
r 10.002744296 _4_ RTR  --- 0 AODV 48 [0 ffffffff a 800] ------- [10:255 -1:255 29 0] [0x2 2 1 [1 0] [0 4]] (REQUEST)
r 10.002744462 _2_ RTR  --- 0 AODV 48 [0 ffffffff a 800] ------- [10:255 -1:255 29 0] [0x2 2 1 [1 0] [0 4]] (REQUEST)
r 10.002744529 _5_ RTR  --- 0 AODV 48 [0 ffffffff a 800] ------- [10:255 -1:255 29 0] [0x2 2 1 [1 0] [0 4]] (REQUEST)
r 10.002744796 _3_ RTR  --- 0 AODV 48 [0 ffffffff a 800] ------- [10:255 -1:255 29 0] [0x2 2 1 [1 0] [0 4]] (REQUEST)
s 10.002789471 _11_ RTR  --- 0 AODV 48 [0 ffffffff 0 800] ------- [11:255 -1:255 29 0] [0x2 2 1 [1 0] [0 4]] (REQUEST)
s 10.002896369 _4_ RTR  --- 0 AODV 48 [0 ffffffff 0 800] ------- [4:255 -1:255 29 0] [0x2 2 1 [1 0] [0 4]] (REQUEST)
r 10.003662529 _5_ RTR  --- 0 AODV 48 [0 ffffffff 2 800] ------- [2:255 -1:255 29 0] [0x2 2 1 [1 0] [0 4]] (REQUEST)
r 10.003662629 _4_ RTR  --- 0 AODV 48 [0 ffffffff 2 800] ------- [2:255 -1:255 29 0] [0x2 2 1 [1 0] [0 4]] (REQUEST)
r 10.003662796 _3_ RTR  --- 0 AODV 48 [0 ffffffff 2 800] ------- [2:255 -1:255 29 0] [0x2 2 1 [1 0] [0 4]] (REQUEST)
r 10.003662946 _0_ RTR  --- 0 AODV 48 [0 ffffffff 2 800] ------- [2:255 -1:255 29 0] [0x2 2 1 [1 0] [0 4]] (REQUEST)
r 10.003662962 _14_ RTR  --- 0 AODV 48 [0 ffffffff 2 800] ------- [2:255 -1:255 29 0] [0x2 2 1 [1 0] [0 4]] (REQUEST)
r 10.003662962 _13_ RTR  --- 0 AODV 48 [0 ffffffff 2 800] ------- [2:255 -1:255 29 0] [0x2 2 1 [1 0] [0 4]] (REQUEST)
r 10.003662962 _12_ RTR  --- 0 AODV 48 [0 ffffffff 2 800] ------- [2:255 -1:255 29 0] [0x2 2 1 [1 0] [0 4]] (REQUEST)
r 10.003662962 _11_ RTR  --- 0 AODV 48 [0 ffffffff 2 800] ------- [2:255 -1:255 29 0] [0x2 2 1 [1 0] [0 4]] (REQUEST)
r 10.003662962 _10_ RTR  --- 0 AODV 48 [0 ffffffff 2 800] ------- [2:255 -1:255 29 0] [0x2 2 1 [1 0] [0 4]] (REQUEST)
r 10.003662962 _9_ RTR  --- 0 AODV 48 [0 ffffffff 2 800] ------- [2:255 -1:255 29 0] [0x2 2 1 [1 0] [0 4]] (REQUEST)
r 10.003662962 _8_ RTR  --- 0 AODV 48 [0 ffffffff 2 800] ------- [2:255 -1:255 29 0] [0x2 2 1 [1 0] [0 4]] (REQUEST)
r 10.003662962 _7_ RTR  --- 0 AODV 48 [0 ffffffff 2 800] ------- [2:255 -1:255 29 0] [0x2 2 1 [1 0] [0 4]] (REQUEST)
r 10.003662962 _6_ RTR  --- 0 AODV 48 [0 ffffffff 2 800] ------- [2:255 -1:255 29 0] [0x2 2 1 [1 0] [0 4]] (REQUEST)
s 10.004238807 _13_ RTR  --- 0 AODV 48 [0 ffffffff 0 800] ------- [13:255 -1:255 29 0] [0x2 2 1 [1 0] [0 4]] (REQUEST)
s 10.004636227 _3_ RTR  --- 0 AODV 48 [0 ffffffff 0 800] ------- [3:255 -1:255 29 0] [0x2 2 1 [1 0] [0 4]] (REQUEST)
r 10.004740962 _10_ RTR  --- 0 AODV 48 [0 ffffffff b 800] ------- [11:255 -1:255 29 0] [0x2 2 1 [1 0] [0 4]] (REQUEST)
r 10.004740962 _9_ RTR  --- 0 AODV 48 [0 ffffffff b 800] ------- [11:255 -1:255 29 0] [0x2 2 1 [1 0] [0 4]] (REQUEST)
r 10.004740962 _8_ RTR  --- 0 AODV 48 [0 ffffffff b 800] ------- [11:255 -1:255 29 0] [0x2 2 1 [1 0] [0 4]] (REQUEST)
r 10.004740962 _7_ RTR  --- 0 AODV 48 [0 ffffffff b 800] ------- [11:255 -1:255 29 0] [0x2 2 1 [1 0] [0 4]] (REQUEST)
r 10.004740962 _6_ RTR  --- 0 AODV 48 [0 ffffffff b 800] ------- [11:255 -1:255 29 0] [0x2 2 1 [1 0] [0 4]] (REQUEST)
r 10.004740962 _12_ RTR  --- 0 AODV 48 [0 ffffffff b 800] ------- [11:255 -1:255 29 0] [0x2 2 1 [1 0] [0 4]] (REQUEST)
r 10.004740962 _13_ RTR  --- 0 AODV 48 [0 ffffffff b 800] ------- [11:255 -1:255 29 0] [0x2 2 1 [1 0] [0 4]] (REQUEST)
r 10.004740962 _14_ RTR  --- 0 AODV 48 [0 ffffffff b 800] ------- [11:255 -1:255 29 0] [0x2 2 1 [1 0] [0 4]] (REQUEST)
r 10.004740979 _0_ RTR  --- 0 AODV 48 [0 ffffffff b 800] ------- [11:255 -1:255 29 0] [0x2 2 1 [1 0] [0 4]] (REQUEST)
r 10.004741296 _4_ RTR  --- 0 AODV 48 [0 ffffffff b 800] ------- [11:255 -1:255 29 0] [0x2 2 1 [1 0] [0 4]] (REQUEST)
r 10.004741462 _2_ RTR  --- 0 AODV 48 [0 ffffffff b 800] ------- [11:255 -1:255 29 0] [0x2 2 1 [1 0] [0 4]] (REQUEST)
r 10.004741529 _5_ RTR  --- 0 AODV 48 [0 ffffffff b 800] ------- [11:255 -1:255 29 0] [0x2 2 1 [1 0] [0 4]] (REQUEST)
r 10.004741796 _3_ RTR  --- 0 AODV 48 [0 ffffffff b 800] ------- [11:255 -1:255 29 0] [0x2 2 1 [1 0] [0 4]] (REQUEST)
s 10.005384584 _6_ RTR  --- 0 AODV 48 [0 ffffffff 0 800] ------- [6:255 -1:255 29 0] [0x2 2 1 [1 0] [0 4]] (REQUEST)
r 10.005678962 _7_ RTR  --- 0 AODV 48 [0 ffffffff 8 800] ------- [8:255 -1:255 29 0] [0x2 2 1 [1 0] [0 4]] (REQUEST)
r 10.005678962 _6_ RTR  --- 0 AODV 48 [0 ffffffff 8 800] ------- [8:255 -1:255 29 0] [0x2 2 1 [1 0] [0 4]] (REQUEST)
r 10.005678962 _9_ RTR  --- 0 AODV 48 [0 ffffffff 8 800] ------- [8:255 -1:255 29 0] [0x2 2 1 [1 0] [0 4]] (REQUEST)
r 10.005678962 _10_ RTR  --- 0 AODV 48 [0 ffffffff 8 800] ------- [8:255 -1:255 29 0] [0x2 2 1 [1 0] [0 4]] (REQUEST)
r 10.005678962 _11_ RTR  --- 0 AODV 48 [0 ffffffff 8 800] ------- [8:255 -1:255 29 0] [0x2 2 1 [1 0] [0 4]] (REQUEST)
r 10.005678962 _12_ RTR  --- 0 AODV 48 [0 ffffffff 8 800] ------- [8:255 -1:255 29 0] [0x2 2 1 [1 0] [0 4]] (REQUEST)
r 10.005678962 _13_ RTR  --- 0 AODV 48 [0 ffffffff 8 800] ------- [8:255 -1:255 29 0] [0x2 2 1 [1 0] [0 4]] (REQUEST)
r 10.005678962 _14_ RTR  --- 0 AODV 48 [0 ffffffff 8 800] ------- [8:255 -1:255 29 0] [0x2 2 1 [1 0] [0 4]] (REQUEST)
r 10.005678979 _0_ RTR  --- 0 AODV 48 [0 ffffffff 8 800] ------- [8:255 -1:255 29 0] [0x2 2 1 [1 0] [0 4]] (REQUEST)
r 10.005679296 _4_ RTR  --- 0 AODV 48 [0 ffffffff 8 800] ------- [8:255 -1:255 29 0] [0x2 2 1 [1 0] [0 4]] (REQUEST)
r 10.005679462 _2_ RTR  --- 0 AODV 48 [0 ffffffff 8 800] ------- [8:255 -1:255 29 0] [0x2 2 1 [1 0] [0 4]] (REQUEST)
r 10.005679529 _5_ RTR  --- 0 AODV 48 [0 ffffffff 8 800] ------- [8:255 -1:255 29 0] [0x2 2 1 [1 0] [0 4]] (REQUEST)
r 10.005679796 _3_ RTR  --- 0 AODV 48 [0 ffffffff 8 800] ------- [8:255 -1:255 29 0] [0x2 2 1 [1 0] [0 4]] (REQUEST)
r 10.006876962 _7_ RTR  --- 0 AODV 48 [0 ffffffff 6 800] ------- [6:255 -1:255 29 0] [0x2 2 1 [1 0] [0 4]] (REQUEST)
r 10.006876962 _8_ RTR  --- 0 AODV 48 [0 ffffffff 6 800] ------- [6:255 -1:255 29 0] [0x2 2 1 [1 0] [0 4]] (REQUEST)
r 10.006876962 _9_ RTR  --- 0 AODV 48 [0 ffffffff 6 800] ------- [6:255 -1:255 29 0] [0x2 2 1 [1 0] [0 4]] (REQUEST)
r 10.006876962 _10_ RTR  --- 0 AODV 48 [0 ffffffff 6 800] ------- [6:255 -1:255 29 0] [0x2 2 1 [1 0] [0 4]] (REQUEST)
r 10.006876962 _11_ RTR  --- 0 AODV 48 [0 ffffffff 6 800] ------- [6:255 -1:255 29 0] [0x2 2 1 [1 0] [0 4]] (REQUEST)
r 10.006876962 _12_ RTR  --- 0 AODV 48 [0 ffffffff 6 800] ------- [6:255 -1:255 29 0] [0x2 2 1 [1 0] [0 4]] (REQUEST)
r 10.006876962 _13_ RTR  --- 0 AODV 48 [0 ffffffff 6 800] ------- [6:255 -1:255 29 0] [0x2 2 1 [1 0] [0 4]] (REQUEST)
r 10.006876962 _14_ RTR  --- 0 AODV 48 [0 ffffffff 6 800] ------- [6:255 -1:255 29 0] [0x2 2 1 [1 0] [0 4]] (REQUEST)
r 10.006876979 _0_ RTR  --- 0 AODV 48 [0 ffffffff 6 800] ------- [6:255 -1:255 29 0] [0x2 2 1 [1 0] [0 4]] (REQUEST)
r 10.006877296 _4_ RTR  --- 0 AODV 48 [0 ffffffff 6 800] ------- [6:255 -1:255 29 0] [0x2 2 1 [1 0] [0 4]] (REQUEST)
r 10.006877462 _2_ RTR  --- 0 AODV 48 [0 ffffffff 6 800] ------- [6:255 -1:255 29 0] [0x2 2 1 [1 0] [0 4]] (REQUEST)
r 10.006877529 _5_ RTR  --- 0 AODV 48 [0 ffffffff 6 800] ------- [6:255 -1:255 29 0] [0x2 2 1 [1 0] [0 4]] (REQUEST)
r 10.006877796 _3_ RTR  --- 0 AODV 48 [0 ffffffff 6 800] ------- [6:255 -1:255 29 0] [0x2 2 1 [1 0] [0 4]] (REQUEST)
s 10.007536668 _14_ RTR  --- 0 AODV 48 [0 ffffffff 0 800] ------- [14:255 -1:255 29 0] [0x2 2 1 [1 0] [0 4]] (REQUEST)
s 10.007548693 _9_ RTR  --- 0 AODV 48 [0 ffffffff 0 800] ------- [9:255 -1:255 29 0] [0x2 2 1 [1 0] [0 4]] (REQUEST)
r 10.007816062 _5_ RTR  --- 0 AODV 48 [0 ffffffff 3 800] ------- [3:255 -1:255 29 0] [0x2 2 1 [1 0] [0 4]] (REQUEST)
r 10.007816129 _2_ RTR  --- 0 AODV 48 [0 ffffffff 3 800] ------- [3:255 -1:255 29 0] [0x2 2 1 [1 0] [0 4]] (REQUEST)
r 10.007816296 _4_ RTR  --- 0 AODV 48 [0 ffffffff 3 800] ------- [3:255 -1:255 29 0] [0x2 2 1 [1 0] [0 4]] (REQUEST)
r 10.007816596 _1_ RTR  --- 0 AODV 48 [0 ffffffff 3 800] ------- [3:255 -1:255 29 0] [0x2 2 1 [1 0] [0 4]] (REQUEST)
s 10.007816596 _1_ RTR  --- 0 AODV 44 [0 0 0 0] ------- [1:255 0:255 30 3] [0x4 1 [1 4] 10.000000] (REPLY)
r 10.007816612 _0_ RTR  --- 0 AODV 48 [0 ffffffff 3 800] ------- [3:255 -1:255 29 0] [0x2 2 1 [1 0] [0 4]] (REQUEST)
r 10.007816629 _14_ RTR  --- 0 AODV 48 [0 ffffffff 3 800] ------- [3:255 -1:255 29 0] [0x2 2 1 [1 0] [0 4]] (REQUEST)
r 10.007816629 _13_ RTR  --- 0 AODV 48 [0 ffffffff 3 800] ------- [3:255 -1:255 29 0] [0x2 2 1 [1 0] [0 4]] (REQUEST)
r 10.007816629 _12_ RTR  --- 0 AODV 48 [0 ffffffff 3 800] ------- [3:255 -1:255 29 0] [0x2 2 1 [1 0] [0 4]] (REQUEST)
r 10.007816629 _11_ RTR  --- 0 AODV 48 [0 ffffffff 3 800] ------- [3:255 -1:255 29 0] [0x2 2 1 [1 0] [0 4]] (REQUEST)
r 10.007816629 _10_ RTR  --- 0 AODV 48 [0 ffffffff 3 800] ------- [3:255 -1:255 29 0] [0x2 2 1 [1 0] [0 4]] (REQUEST)
r 10.007816629 _9_ RTR  --- 0 AODV 48 [0 ffffffff 3 800] ------- [3:255 -1:255 29 0] [0x2 2 1 [1 0] [0 4]] (REQUEST)
r 10.007816629 _8_ RTR  --- 0 AODV 48 [0 ffffffff 3 800] ------- [3:255 -1:255 29 0] [0x2 2 1 [1 0] [0 4]] (REQUEST)
r 10.007816629 _7_ RTR  --- 0 AODV 48 [0 ffffffff 3 800] ------- [3:255 -1:255 29 0] [0x2 2 1 [1 0] [0 4]] (REQUEST)
r 10.007816629 _6_ RTR  --- 0 AODV 48 [0 ffffffff 3 800] ------- [3:255 -1:255 29 0] [0x2 2 1 [1 0] [0 4]] (REQUEST)
r 10.008754462 _2_ RTR  --- 0 AODV 48 [0 ffffffff 4 800] ------- [4:255 -1:255 29 0] [0x2 2 1 [1 0] [0 4]] (REQUEST)
r 10.008754529 _5_ RTR  --- 0 AODV 48 [0 ffffffff 4 800] ------- [4:255 -1:255 29 0] [0x2 2 1 [1 0] [0 4]] (REQUEST)
r 10.008754612 _0_ RTR  --- 0 AODV 48 [0 ffffffff 4 800] ------- [4:255 -1:255 29 0] [0x2 2 1 [1 0] [0 4]] (REQUEST)
r 10.008754629 _14_ RTR  --- 0 AODV 48 [0 ffffffff 4 800] ------- [4:255 -1:255 29 0] [0x2 2 1 [1 0] [0 4]] (REQUEST)
r 10.008754629 _13_ RTR  --- 0 AODV 48 [0 ffffffff 4 800] ------- [4:255 -1:255 29 0] [0x2 2 1 [1 0] [0 4]] (REQUEST)
r 10.008754629 _12_ RTR  --- 0 AODV 48 [0 ffffffff 4 800] ------- [4:255 -1:255 29 0] [0x2 2 1 [1 0] [0 4]] (REQUEST)
r 10.008754629 _11_ RTR  --- 0 AODV 48 [0 ffffffff 4 800] ------- [4:255 -1:255 29 0] [0x2 2 1 [1 0] [0 4]] (REQUEST)
r 10.008754629 _10_ RTR  --- 0 AODV 48 [0 ffffffff 4 800] ------- [4:255 -1:255 29 0] [0x2 2 1 [1 0] [0 4]] (REQUEST)
r 10.008754629 _9_ RTR  --- 0 AODV 48 [0 ffffffff 4 800] ------- [4:255 -1:255 29 0] [0x2 2 1 [1 0] [0 4]] (REQUEST)
r 10.008754629 _8_ RTR  --- 0 AODV 48 [0 ffffffff 4 800] ------- [4:255 -1:255 29 0] [0x2 2 1 [1 0] [0 4]] (REQUEST)
r 10.008754629 _7_ RTR  --- 0 AODV 48 [0 ffffffff 4 800] ------- [4:255 -1:255 29 0] [0x2 2 1 [1 0] [0 4]] (REQUEST)
r 10.008754629 _6_ RTR  --- 0 AODV 48 [0 ffffffff 4 800] ------- [4:255 -1:255 29 0] [0x2 2 1 [1 0] [0 4]] (REQUEST)
r 10.008754796 _3_ RTR  --- 0 AODV 48 [0 ffffffff 4 800] ------- [4:255 -1:255 29 0] [0x2 2 1 [1 0] [0 4]] (REQUEST)
s 10.009218836 _5_ RTR  --- 0 AODV 48 [0 ffffffff 0 800] ------- [5:255 -1:255 29 0] [0x2 2 1 [1 0] [0 4]] (REQUEST)
s 10.009511252 _12_ RTR  --- 0 AODV 48 [0 ffffffff 0 800] ------- [12:255 -1:255 29 0] [0x2 2 1 [1 0] [0 4]] (REQUEST)
r 10.009692629 _13_ RTR  --- 0 AODV 48 [0 ffffffff e 800] ------- [14:255 -1:255 29 0] [0x2 2 1 [1 0] [0 4]] (REQUEST)
r 10.009692629 _12_ RTR  --- 0 AODV 48 [0 ffffffff e 800] ------- [14:255 -1:255 29 0] [0x2 2 1 [1 0] [0 4]] (REQUEST)
r 10.009692629 _11_ RTR  --- 0 AODV 48 [0 ffffffff e 800] ------- [14:255 -1:255 29 0] [0x2 2 1 [1 0] [0 4]] (REQUEST)
r 10.009692629 _10_ RTR  --- 0 AODV 48 [0 ffffffff e 800] ------- [14:255 -1:255 29 0] [0x2 2 1 [1 0] [0 4]] (REQUEST)
r 10.009692629 _9_ RTR  --- 0 AODV 48 [0 ffffffff e 800] ------- [14:255 -1:255 29 0] [0x2 2 1 [1 0] [0 4]] (REQUEST)
r 10.009692629 _8_ RTR  --- 0 AODV 48 [0 ffffffff e 800] ------- [14:255 -1:255 29 0] [0x2 2 1 [1 0] [0 4]] (REQUEST)
r 10.009692629 _7_ RTR  --- 0 AODV 48 [0 ffffffff e 800] ------- [14:255 -1:255 29 0] [0x2 2 1 [1 0] [0 4]] (REQUEST)
r 10.009692629 _6_ RTR  --- 0 AODV 48 [0 ffffffff e 800] ------- [14:255 -1:255 29 0] [0x2 2 1 [1 0] [0 4]] (REQUEST)
r 10.009692646 _0_ RTR  --- 0 AODV 48 [0 ffffffff e 800] ------- [14:255 -1:255 29 0] [0x2 2 1 [1 0] [0 4]] (REQUEST)
r 10.009692962 _4_ RTR  --- 0 AODV 48 [0 ffffffff e 800] ------- [14:255 -1:255 29 0] [0x2 2 1 [1 0] [0 4]] (REQUEST)
r 10.009693129 _2_ RTR  --- 0 AODV 48 [0 ffffffff e 800] ------- [14:255 -1:255 29 0] [0x2 2 1 [1 0] [0 4]] (REQUEST)
r 10.009693196 _5_ RTR  --- 0 AODV 48 [0 ffffffff e 800] ------- [14:255 -1:255 29 0] [0x2 2 1 [1 0] [0 4]] (REQUEST)
r 10.009693462 _3_ RTR  --- 0 AODV 48 [0 ffffffff e 800] ------- [14:255 -1:255 29 0] [0x2 2 1 [1 0] [0 4]] (REQUEST)
s 10.009745294 _7_ RTR  --- 0 AODV 48 [0 ffffffff 0 800] ------- [7:255 -1:255 29 0] [0x2 2 1 [1 0] [0 4]] (REQUEST)
r 10.010690629 _12_ RTR  --- 0 AODV 48 [0 ffffffff d 800] ------- [13:255 -1:255 29 0] [0x2 2 1 [1 0] [0 4]] (REQUEST)
r 10.010690629 _11_ RTR  --- 0 AODV 48 [0 ffffffff d 800] ------- [13:255 -1:255 29 0] [0x2 2 1 [1 0] [0 4]] (REQUEST)
r 10.010690629 _10_ RTR  --- 0 AODV 48 [0 ffffffff d 800] ------- [13:255 -1:255 29 0] [0x2 2 1 [1 0] [0 4]] (REQUEST)
r 10.010690629 _9_ RTR  --- 0 AODV 48 [0 ffffffff d 800] ------- [13:255 -1:255 29 0] [0x2 2 1 [1 0] [0 4]] (REQUEST)
r 10.010690629 _8_ RTR  --- 0 AODV 48 [0 ffffffff d 800] ------- [13:255 -1:255 29 0] [0x2 2 1 [1 0] [0 4]] (REQUEST)
r 10.010690629 _7_ RTR  --- 0 AODV 48 [0 ffffffff d 800] ------- [13:255 -1:255 29 0] [0x2 2 1 [1 0] [0 4]] (REQUEST)
r 10.010690629 _6_ RTR  --- 0 AODV 48 [0 ffffffff d 800] ------- [13:255 -1:255 29 0] [0x2 2 1 [1 0] [0 4]] (REQUEST)
r 10.010690629 _14_ RTR  --- 0 AODV 48 [0 ffffffff d 800] ------- [13:255 -1:255 29 0] [0x2 2 1 [1 0] [0 4]] (REQUEST)
r 10.010690646 _0_ RTR  --- 0 AODV 48 [0 ffffffff d 800] ------- [13:255 -1:255 29 0] [0x2 2 1 [1 0] [0 4]] (REQUEST)
r 10.010690962 _4_ RTR  --- 0 AODV 48 [0 ffffffff d 800] ------- [13:255 -1:255 29 0] [0x2 2 1 [1 0] [0 4]] (REQUEST)
r 10.010691129 _2_ RTR  --- 0 AODV 48 [0 ffffffff d 800] ------- [13:255 -1:255 29 0] [0x2 2 1 [1 0] [0 4]] (REQUEST)
r 10.010691196 _5_ RTR  --- 0 AODV 48 [0 ffffffff d 800] ------- [13:255 -1:255 29 0] [0x2 2 1 [1 0] [0 4]] (REQUEST)
r 10.010691462 _3_ RTR  --- 0 AODV 48 [0 ffffffff d 800] ------- [13:255 -1:255 29 0] [0x2 2 1 [1 0] [0 4]] (REQUEST)
r 10.011648629 _6_ RTR  --- 0 AODV 48 [0 ffffffff 7 800] ------- [7:255 -1:255 29 0] [0x2 2 1 [1 0] [0 4]] (REQUEST)
r 10.011648629 _8_ RTR  --- 0 AODV 48 [0 ffffffff 7 800] ------- [7:255 -1:255 29 0] [0x2 2 1 [1 0] [0 4]] (REQUEST)
r 10.011648629 _9_ RTR  --- 0 AODV 48 [0 ffffffff 7 800] ------- [7:255 -1:255 29 0] [0x2 2 1 [1 0] [0 4]] (REQUEST)
r 10.011648629 _10_ RTR  --- 0 AODV 48 [0 ffffffff 7 800] ------- [7:255 -1:255 29 0] [0x2 2 1 [1 0] [0 4]] (REQUEST)
r 10.011648629 _11_ RTR  --- 0 AODV 48 [0 ffffffff 7 800] ------- [7:255 -1:255 29 0] [0x2 2 1 [1 0] [0 4]] (REQUEST)
r 10.011648629 _12_ RTR  --- 0 AODV 48 [0 ffffffff 7 800] ------- [7:255 -1:255 29 0] [0x2 2 1 [1 0] [0 4]] (REQUEST)
r 10.011648629 _13_ RTR  --- 0 AODV 48 [0 ffffffff 7 800] ------- [7:255 -1:255 29 0] [0x2 2 1 [1 0] [0 4]] (REQUEST)
r 10.011648629 _14_ RTR  --- 0 AODV 48 [0 ffffffff 7 800] ------- [7:255 -1:255 29 0] [0x2 2 1 [1 0] [0 4]] (REQUEST)
r 10.011648646 _0_ RTR  --- 0 AODV 48 [0 ffffffff 7 800] ------- [7:255 -1:255 29 0] [0x2 2 1 [1 0] [0 4]] (REQUEST)
r 10.011648962 _4_ RTR  --- 0 AODV 48 [0 ffffffff 7 800] ------- [7:255 -1:255 29 0] [0x2 2 1 [1 0] [0 4]] (REQUEST)
r 10.011649129 _2_ RTR  --- 0 AODV 48 [0 ffffffff 7 800] ------- [7:255 -1:255 29 0] [0x2 2 1 [1 0] [0 4]] (REQUEST)
r 10.011649196 _5_ RTR  --- 0 AODV 48 [0 ffffffff 7 800] ------- [7:255 -1:255 29 0] [0x2 2 1 [1 0] [0 4]] (REQUEST)
r 10.011649462 _3_ RTR  --- 0 AODV 48 [0 ffffffff 7 800] ------- [7:255 -1:255 29 0] [0x2 2 1 [1 0] [0 4]] (REQUEST)
r 10.013909262 _2_ RTR  --- 0 AODV 48 [0 ffffffff 5 800] ------- [5:255 -1:255 29 0] [0x2 2 1 [1 0] [0 4]] (REQUEST)
r 10.013909429 _4_ RTR  --- 0 AODV 48 [0 ffffffff 5 800] ------- [5:255 -1:255 29 0] [0x2 2 1 [1 0] [0 4]] (REQUEST)
r 10.013909462 _3_ RTR  --- 0 AODV 48 [0 ffffffff 5 800] ------- [5:255 -1:255 29 0] [0x2 2 1 [1 0] [0 4]] (REQUEST)
r 10.013909745 _0_ RTR  --- 0 AODV 48 [0 ffffffff 5 800] ------- [5:255 -1:255 29 0] [0x2 2 1 [1 0] [0 4]] (REQUEST)
r 10.013909762 _14_ RTR  --- 0 AODV 48 [0 ffffffff 5 800] ------- [5:255 -1:255 29 0] [0x2 2 1 [1 0] [0 4]] (REQUEST)
r 10.013909762 _13_ RTR  --- 0 AODV 48 [0 ffffffff 5 800] ------- [5:255 -1:255 29 0] [0x2 2 1 [1 0] [0 4]] (REQUEST)
r 10.013909762 _12_ RTR  --- 0 AODV 48 [0 ffffffff 5 800] ------- [5:255 -1:255 29 0] [0x2 2 1 [1 0] [0 4]] (REQUEST)
r 10.013909762 _11_ RTR  --- 0 AODV 48 [0 ffffffff 5 800] ------- [5:255 -1:255 29 0] [0x2 2 1 [1 0] [0 4]] (REQUEST)
r 10.013909762 _10_ RTR  --- 0 AODV 48 [0 ffffffff 5 800] ------- [5:255 -1:255 29 0] [0x2 2 1 [1 0] [0 4]] (REQUEST)
r 10.013909762 _9_ RTR  --- 0 AODV 48 [0 ffffffff 5 800] ------- [5:255 -1:255 29 0] [0x2 2 1 [1 0] [0 4]] (REQUEST)
r 10.013909762 _8_ RTR  --- 0 AODV 48 [0 ffffffff 5 800] ------- [5:255 -1:255 29 0] [0x2 2 1 [1 0] [0 4]] (REQUEST)
r 10.013909762 _7_ RTR  --- 0 AODV 48 [0 ffffffff 5 800] ------- [5:255 -1:255 29 0] [0x2 2 1 [1 0] [0 4]] (REQUEST)
r 10.013909762 _6_ RTR  --- 0 AODV 48 [0 ffffffff 5 800] ------- [5:255 -1:255 29 0] [0x2 2 1 [1 0] [0 4]] (REQUEST)
r 10.018872862 _3_ RTR  --- 0 AODV 44 [13a 3 1 800] ------- [1:255 0:255 30 3] [0x4 1 [1 4] 10.000000] (REPLY)
f 10.018872862 _3_ RTR  --- 0 AODV 44 [13a 3 1 800] ------- [1:255 0:255 29 0] [0x4 2 [1 4] 10.000000] (REPLY)
r 10.023725575 _0_ RTR  --- 0 AODV 44 [13a 0 3 800] ------- [1:255 0:255 29 0] [0x4 2 [1 4] 10.000000] (REPLY)
s 10.023725575 _0_ RTR  --- 0 tcp 40 [0 0 0 0] ------- [0:0 1:0 30 3] [0 0] 0 0
r 10.025792024 _3_ RTR  --- 0 tcp 40 [13a 3 0 800] ------- [0:0 1:0 30 3] [0 0] 1 0
f 10.025792024 _3_ RTR  --- 0 tcp 40 [13a 3 0 800] ------- [0:0 1:0 29 1] [0 0] 1 0
r 10.027858424 _1_ AGT  --- 0 tcp 40 [13a 1 3 800] ------- [0:0 1:0 29 1] [0 0] 2 0
s 10.027858424 _1_ AGT  --- 1 ack 40 [0 0 0 0] ------- [1:0 0:0 32 0] [0 0] 0 0
r 10.027858424 _1_ RTR  --- 1 ack 40 [0 0 0 0] ------- [1:0 0:0 32 0] [0 0] 0 0
s 10.027858424 _1_ RTR  --- 1 ack 40 [0 0 0 0] ------- [1:0 0:0 30 3] [0 0] 0 0
r 10.029964824 _3_ RTR  --- 1 ack 40 [13a 3 1 800] ------- [1:0 0:0 30 3] [0 0] 1 0
f 10.029964824 _3_ RTR  --- 1 ack 40 [13a 3 1 800] ------- [1:0 0:0 29 0] [0 0] 1 0
r 10.032271272 _0_ AGT  --- 1 ack 40 [13a 0 3 800] ------- [1:0 0:0 29 0] [0 0] 2 0
s 10.032271272 _0_ AGT  --- 2 tcp 1040 [0 0 0 0] ------- [0:0 1:0 32 0] [1 0] 0 0
r 10.032271272 _0_ RTR  --- 2 tcp 1040 [0 0 0 0] ------- [0:0 1:0 32 0] [1 0] 0 0
s 10.032271272 _0_ AGT  --- 3 tcp 1040 [0 0 0 0] ------- [0:0 1:0 32 0] [2 0] 0 0
r 10.032271272 _0_ RTR  --- 3 tcp 1040 [0 0 0 0] ------- [0:0 1:0 32 0] [2 0] 0 0
s 10.032271272 _0_ RTR  --- 2 tcp 1040 [0 0 0 0] ------- [0:0 1:0 30 3] [1 0] 0 0
s 10.032271272 _0_ RTR  --- 3 tcp 1040 [0 0 0 0] ------- [0:0 1:0 30 3] [2 0] 0 0
r 10.042217719 _3_ RTR  --- 2 tcp 1040 [13a 3 0 800] ------- [0:0 1:0 30 3] [1 0] 1 0
f 10.042217719 _3_ RTR  --- 2 tcp 1040 [13a 3 0 800] ------- [0:0 1:0 29 1] [1 0] 1 0
r 10.052084982 _3_ RTR  --- 3 tcp 1040 [13a 3 0 800] ------- [0:0 1:0 30 3] [2 0] 1 0
f 10.052084982 _3_ RTR  --- 3 tcp 1040 [13a 3 0 800] ------- [0:0 1:0 29 1] [2 0] 1 0
r 10.062071382 _1_ AGT  --- 2 tcp 1040 [13a 1 3 800] ------- [0:0 1:0 29 1] [1 0] 2 0
s 10.062071382 _1_ AGT  --- 4 ack 40 [0 0 0 0] ------- [1:0 0:0 32 0] [1 0] 0 0
r 10.062071382 _1_ RTR  --- 4 ack 40 [0 0 0 0] ------- [1:0 0:0 32 0] [1 0] 0 0
s 10.062071382 _1_ RTR  --- 4 ack 40 [0 0 0 0] ------- [1:0 0:0 30 3] [1 0] 0 0
r 10.064017782 _3_ RTR  --- 4 ack 40 [13a 3 1 800] ------- [1:0 0:0 30 3] [1 0] 1 0
f 10.064017782 _3_ RTR  --- 4 ack 40 [13a 3 1 800] ------- [1:0 0:0 29 0] [1 0] 1 0
r 10.073924182 _1_ AGT  --- 3 tcp 1040 [13a 1 3 800] ------- [0:0 1:0 29 1] [2 0] 2 0
s 10.073924182 _1_ AGT  --- 5 ack 40 [0 0 0 0] ------- [1:0 0:0 32 0] [2 0] 0 0
r 10.073924182 _1_ RTR  --- 5 ack 40 [0 0 0 0] ------- [1:0 0:0 32 0] [2 0] 0 0
s 10.073924182 _1_ RTR  --- 5 ack 40 [0 0 0 0] ------- [1:0 0:0 30 3] [2 0] 0 0
r 10.075770582 _3_ RTR  --- 5 ack 40 [13a 3 1 800] ------- [1:0 0:0 30 3] [2 0] 1 0
f 10.075770582 _3_ RTR  --- 5 ack 40 [13a 3 1 800] ------- [1:0 0:0 29 0] [2 0] 1 0
r 10.077677027 _0_ AGT  --- 4 ack 40 [13a 0 3 800] ------- [1:0 0:0 29 0] [1 0] 2 0
s 10.077677027 _0_ AGT  --- 6 tcp 1040 [0 0 0 0] ------- [0:0 1:0 32 0] [3 0] 0 0
r 10.077677027 _0_ RTR  --- 6 tcp 1040 [0 0 0 0] ------- [0:0 1:0 32 0] [3 0] 0 0
s 10.077677027 _0_ AGT  --- 7 tcp 1040 [0 0 0 0] ------- [0:0 1:0 32 0] [4 0] 0 0
r 10.077677027 _0_ RTR  --- 7 tcp 1040 [0 0 0 0] ------- [0:0 1:0 32 0] [4 0] 0 0
s 10.077677027 _0_ RTR  --- 6 tcp 1040 [0 0 0 0] ------- [0:0 1:0 30 3] [3 0] 0 0
s 10.077677027 _0_ RTR  --- 7 tcp 1040 [0 0 0 0] ------- [0:0 1:0 30 3] [4 0] 0 0
r 10.079704286 _0_ AGT  --- 5 ack 40 [13a 0 3 800] ------- [1:0 0:0 29 0] [2 0] 2 0
s 10.079704286 _0_ AGT  --- 8 tcp 1040 [0 0 0 0] ------- [0:0 1:0 32 0] [5 0] 0 0
r 10.079704286 _0_ RTR  --- 8 tcp 1040 [0 0 0 0] ------- [0:0 1:0 32 0] [5 0] 0 0
s 10.079704286 _0_ AGT  --- 9 tcp 1040 [0 0 0 0] ------- [0:0 1:0 32 0] [6 0] 0 0
r 10.079704286 _0_ RTR  --- 9 tcp 1040 [0 0 0 0] ------- [0:0 1:0 32 0] [6 0] 0 0
s 10.079704286 _0_ RTR  --- 8 tcp 1040 [0 0 0 0] ------- [0:0 1:0 30 3] [5 0] 0 0
s 10.079704286 _0_ RTR  --- 9 tcp 1040 [0 0 0 0] ------- [0:0 1:0 30 3] [6 0] 0 0
r 10.089610730 _3_ RTR  --- 6 tcp 1040 [13a 3 0 800] ------- [0:0 1:0 30 3] [3 0] 1 0
f 10.089610730 _3_ RTR  --- 6 tcp 1040 [13a 3 0 800] ------- [0:0 1:0 29 1] [3 0] 1 0
r 10.099777130 _1_ AGT  --- 6 tcp 1040 [13a 1 3 800] ------- [0:0 1:0 29 1] [3 0] 2 0
s 10.099777130 _1_ AGT  --- 10 ack 40 [0 0 0 0] ------- [1:0 0:0 32 0] [3 0] 0 0
r 10.099777130 _1_ RTR  --- 10 ack 40 [0 0 0 0] ------- [1:0 0:0 32 0] [3 0] 0 0
s 10.099777130 _1_ RTR  --- 10 ack 40 [0 0 0 0] ------- [1:0 0:0 30 3] [3 0] 0 0
r 10.101723530 _3_ RTR  --- 10 ack 40 [13a 3 1 800] ------- [1:0 0:0 30 3] [3 0] 1 0
f 10.101723530 _3_ RTR  --- 10 ack 40 [13a 3 1 800] ------- [1:0 0:0 29 0] [3 0] 1 0
r 10.111880787 _3_ RTR  --- 7 tcp 1040 [13a 3 0 800] ------- [0:0 1:0 30 3] [4 0] 1 0
f 10.111880787 _3_ RTR  --- 7 tcp 1040 [13a 3 0 800] ------- [0:0 1:0 29 1] [4 0] 1 0
r 10.113967230 _0_ AGT  --- 10 ack 40 [13a 0 3 800] ------- [1:0 0:0 29 0] [3 0] 2 0
s 10.113967230 _0_ AGT  --- 11 tcp 1040 [0 0 0 0] ------- [0:0 1:0 32 0] [7 0] 0 0
r 10.113967230 _0_ RTR  --- 11 tcp 1040 [0 0 0 0] ------- [0:0 1:0 32 0] [7 0] 0 0
s 10.113967230 _0_ AGT  --- 12 tcp 1040 [0 0 0 0] ------- [0:0 1:0 32 0] [8 0] 0 0
r 10.113967230 _0_ RTR  --- 12 tcp 1040 [0 0 0 0] ------- [0:0 1:0 32 0] [8 0] 0 0
s 10.113967230 _0_ RTR  --- 11 tcp 1040 [0 0 0 0] ------- [0:0 1:0 30 3] [7 0] 0 0
s 10.113967230 _0_ RTR  --- 12 tcp 1040 [0 0 0 0] ------- [0:0 1:0 30 3] [8 0] 0 0
r 10.124153671 _3_ RTR  --- 8 tcp 1040 [13a 3 0 800] ------- [0:0 1:0 30 3] [5 0] 1 0
f 10.124153671 _3_ RTR  --- 8 tcp 1040 [13a 3 0 800] ------- [0:0 1:0 29 1] [5 0] 1 0
r 10.134080071 _1_ AGT  --- 7 tcp 1040 [13a 1 3 800] ------- [0:0 1:0 29 1] [4 0] 2 0
s 10.134080071 _1_ AGT  --- 13 ack 40 [0 0 0 0] ------- [1:0 0:0 32 0] [4 0] 0 0
r 10.134080071 _1_ RTR  --- 13 ack 40 [0 0 0 0] ------- [1:0 0:0 32 0] [4 0] 0 0
s 10.134080071 _1_ RTR  --- 13 ack 40 [0 0 0 0] ------- [1:0 0:0 30 3] [4 0] 0 0
r 10.145293271 _1_ AGT  --- 8 tcp 1040 [13a 1 3 800] ------- [0:0 1:0 29 1] [5 0] 2 0
s 10.145293271 _1_ AGT  --- 14 ack 40 [0 0 0 0] ------- [1:0 0:0 32 0] [5 0] 0 0
r 10.145293271 _1_ RTR  --- 14 ack 40 [0 0 0 0] ------- [1:0 0:0 32 0] [5 0] 0 0
s 10.145293271 _1_ RTR  --- 14 ack 40 [0 0 0 0] ------- [1:0 0:0 30 3] [5 0] 0 0
r 10.147479671 _3_ RTR  --- 13 ack 40 [13a 3 1 800] ------- [1:0 0:0 30 3] [4 0] 1 0
f 10.147479671 _3_ RTR  --- 13 ack 40 [13a 3 1 800] ------- [1:0 0:0 29 0] [4 0] 1 0
r 10.157516924 _3_ RTR  --- 9 tcp 1040 [13a 3 0 800] ------- [0:0 1:0 30 3] [6 0] 1 0
f 10.157516924 _3_ RTR  --- 9 tcp 1040 [13a 3 0 800] ------- [0:0 1:0 29 1] [6 0] 1 0
r 10.159414124 _3_ RTR  --- 14 ack 40 [13a 3 1 800] ------- [1:0 0:0 30 3] [5 0] 1 0
f 10.159414124 _3_ RTR  --- 14 ack 40 [13a 3 1 800] ------- [1:0 0:0 29 0] [5 0] 1 0
r 10.169411376 _3_ RTR  --- 11 tcp 1040 [13a 3 0 800] ------- [0:0 1:0 30 3] [7 0] 1 0
f 10.169411376 _3_ RTR  --- 11 tcp 1040 [13a 3 0 800] ------- [0:0 1:0 29 1] [7 0] 1 0
r 10.171397814 _0_ AGT  --- 13 ack 40 [13a 0 3 800] ------- [1:0 0:0 29 0] [4 0] 2 0
s 10.171397814 _0_ AGT  --- 15 tcp 1040 [0 0 0 0] ------- [0:0 1:0 32 0] [9 0] 0 0
r 10.171397814 _0_ RTR  --- 15 tcp 1040 [0 0 0 0] ------- [0:0 1:0 32 0] [9 0] 0 0
s 10.171397814 _0_ AGT  --- 16 tcp 1040 [0 0 0 0] ------- [0:0 1:0 32 0] [10 0] 0 0
r 10.171397814 _0_ RTR  --- 16 tcp 1040 [0 0 0 0] ------- [0:0 1:0 32 0] [10 0] 0 0
s 10.171397814 _0_ RTR  --- 15 tcp 1040 [0 0 0 0] ------- [0:0 1:0 30 3] [9 0] 0 0
s 10.171397814 _0_ RTR  --- 16 tcp 1040 [0 0 0 0] ------- [0:0 1:0 30 3] [10 0] 0 0
r 10.181524252 _3_ RTR  --- 12 tcp 1040 [13a 3 0 800] ------- [0:0 1:0 30 3] [8 0] 1 0
f 10.181524252 _3_ RTR  --- 12 tcp 1040 [13a 3 0 800] ------- [0:0 1:0 29 1] [8 0] 1 0
r 10.191470652 _1_ AGT  --- 9 tcp 1040 [13a 1 3 800] ------- [0:0 1:0 29 1] [6 0] 2 0
s 10.191470652 _1_ AGT  --- 17 ack 40 [0 0 0 0] ------- [1:0 0:0 32 0] [6 0] 0 0
r 10.191470652 _1_ RTR  --- 17 ack 40 [0 0 0 0] ------- [1:0 0:0 32 0] [6 0] 0 0
s 10.191470652 _1_ RTR  --- 17 ack 40 [0 0 0 0] ------- [1:0 0:0 30 3] [6 0] 0 0
r 10.193457052 _3_ RTR  --- 17 ack 40 [13a 3 1 800] ------- [1:0 0:0 30 3] [6 0] 1 0
f 10.193457052 _3_ RTR  --- 17 ack 40 [13a 3 1 800] ------- [1:0 0:0 29 0] [6 0] 1 0
r 10.203354301 _3_ RTR  --- 15 tcp 1040 [13a 3 0 800] ------- [0:0 1:0 30 3] [9 0] 1 0
f 10.203354301 _3_ RTR  --- 15 tcp 1040 [13a 3 0 800] ------- [0:0 1:0 29 1] [9 0] 1 0
r 10.205200737 _0_ AGT  --- 14 ack 40 [13a 0 3 800] ------- [1:0 0:0 29 0] [5 0] 2 0
s 10.205200737 _0_ AGT  --- 18 tcp 1040 [0 0 0 0] ------- [0:0 1:0 32 0] [11 0] 0 0
r 10.205200737 _0_ RTR  --- 18 tcp 1040 [0 0 0 0] ------- [0:0 1:0 32 0] [11 0] 0 0
s 10.205200737 _0_ AGT  --- 19 tcp 1040 [0 0 0 0] ------- [0:0 1:0 32 0] [12 0] 0 0
r 10.205200737 _0_ RTR  --- 19 tcp 1040 [0 0 0 0] ------- [0:0 1:0 32 0] [12 0] 0 0
s 10.205200737 _0_ RTR  --- 18 tcp 1040 [0 0 0 0] ------- [0:0 1:0 30 3] [11 0] 0 0
s 10.205200737 _0_ RTR  --- 19 tcp 1040 [0 0 0 0] ------- [0:0 1:0 30 3] [12 0] 0 0
r 10.215167172 _3_ RTR  --- 16 tcp 1040 [13a 3 0 800] ------- [0:0 1:0 30 3] [10 0] 1 0
f 10.215167172 _3_ RTR  --- 16 tcp 1040 [13a 3 0 800] ------- [0:0 1:0 29 1] [10 0] 1 0
r 10.225233572 _1_ AGT  --- 11 tcp 1040 [13a 1 3 800] ------- [0:0 1:0 29 1] [7 0] 2 0
s 10.225233572 _1_ AGT  --- 20 ack 40 [0 0 0 0] ------- [1:0 0:0 32 0] [7 0] 0 0
r 10.225233572 _1_ RTR  --- 20 ack 40 [0 0 0 0] ------- [1:0 0:0 32 0] [7 0] 0 0